<?xml version="1.0" encoding="UTF-8"?>

<!-- generated on 2024-02-28 13:48:37 by Eclipse SUMO GUI Version 1.18.0
<configuration xmlns:xsi="http://www.w3.org/2001/XMLSchema-instance" xsi:noNamespaceSchemaLocation="http://sumo.dlr.de/xsd/sumoConfiguration.xsd">

    <input>
        <net-file value="grid_10.net.xml"/>
        <route-files value="trips.trips.xml"/>
    </input>

    <output>
        <vehroute-output value="out.xml"/>
    </output>

    <routing>
        <routing-algorithm value="astar"/>
    </routing>

    <traci_server>
        <remote-port value="53669"/>
    </traci_server>

</configuration>
-->

<routes xmlns:xsi="http://www.w3.org/2001/XMLSchema-instance" xsi:noNamespaceSchemaLocation="http://sumo.dlr.de/xsd/routes_file.xsd">
    <vehicle id="7" depart="7.00" arrival="28.00">
        <route edges="G4F4 F4F3"/>
    </vehicle>

    <vehicle id="13" depart="13.00" arrival="42.00">
        <route edges="B1B2 B2B1 B1C1"/>
    </vehicle>

    <vehicle id="10" depart="10.00" arrival="49.00">
        <route edges="H8I8 I8H8 H8G8 G8G9"/>
    </vehicle>

    <vehicle id="2" depart="2.00" arrival="53.00">
        <route edges="H2H3 H3H4 H4H5 H5H6 H6G6 G6G7"/>
    </vehicle>

    <vehicle id="4" depart="4.00" arrival="61.00">
        <route edges="E2E3 E3D3 D3C3 C3B3 B3A3 A3B3"/>
    </vehicle>

    <vehicle id="18" depart="18.00" arrival="67.00">
        <route edges="I1I0 I0H0 H0G0 G0G1 G1G0"/>
    </vehicle>

    <vehicle id="1" depart="1.00" arrival="73.00">
        <route edges="C8C9 C9C8 C8C7 C7C6 C6C5 C5C4 C4C3 C3D3"/>
    </vehicle>

    <vehicle id="5" depart="5.00" arrival="75.00">
        <route edges="C3C2 C2C1 C1C0 C0D0 D0E0 E0F0 F0F1"/>
    </vehicle>

    <vehicle id="21" depart="21.00" arrival="75.00">
        <route edges="C4C3 C3C2 C2C1 C1C0 C0D0 D0C0"/>
    </vehicle>

    <vehicle id="29" depart="29.00" arrival="76.00">
        <route edges="B7C7 C7C8 C8D8 D8D7"/>
    </vehicle>

    <vehicle id="33" depart="33.00" arrival="79.00">
        <route edges="C4C3 C3B3 B3A3 A3A4 A4A3"/>
    </vehicle>

    <vehicle id="0" depart="0.00" arrival="81.00">
        <route edges="G3G2 G2F2 F2E2 E2D2 D2C2 C2B2 B2A2 A2A3 A3A4"/>
    </vehicle>

    <vehicle id="6" depart="6.00" arrival="81.00">
        <route edges="A3A4 A4B4 B4C4 C4C3 C3C2 C2C1 C1C2"/>
    </vehicle>

    <vehicle id="17" depart="17.00" arrival="81.00">
        <route edges="D8D7 D7D6 D6D5 D5D4 D4E4 E4F4 F4G4"/>
    </vehicle>

    <vehicle id="31" depart="31.00" arrival="82.00">
        <route edges="F5F4 F4F5 F5F6 F6F7 F7G7 G7G6"/>
    </vehicle>

    <vehicle id="11" depart="11.00" arrival="83.00">
        <route edges="D4E4 E4D4 D4C4 C4C5 C5C6 C6C7 C7B7 B7A7"/>
    </vehicle>

    <vehicle id="32" depart="32.00" arrival="84.00">
        <route edges="I2I3 I3I4 I4I5 I5I6 I6H6 H6G6"/>
    </vehicle>

    <vehicle id="41" depart="41.00" arrival="85.00">
        <route edges="F7G7 G7H7 H7I7 I7I8"/>
    </vehicle>

    <vehicle id="39" depart="39.00" arrival="88.00">
        <route edges="C7C8 C8C7 C7C6 C6C5 C5D5"/>
    </vehicle>

    <vehicle id="49" depart="49.00" arrival="90.00">
        <route edges="J6I6 I6I5 I5I4 I4H4"/>
    </vehicle>

    <vehicle id="8" depart="8.00" arrival="92.00">
        <route edges="C3C4 C4C5 C5C6 C6C7 C7C8 C8D8 D8E8 E8F8 F8F7"/>
    </vehicle>

    <vehicle id="19" depart="19.00" arrival="92.00">
        <route edges="I4I3 I3H3 H3G3 G3G4 G4G5 G5G6 G6G7 G7F7 F7E7"/>
    </vehicle>

    <vehicle id="22" depart="22.00" arrival="94.00">
        <route edges="B0A0 A0A1 A1B1 B1C1 C1C2 C2C3 C3C4 C4C5"/>
    </vehicle>

    <vehicle id="27" depart="27.00" arrival="94.00">
        <route edges="G4F4 F4G4 G4G3 G3G2 G2G1 G1G0 G0G1"/>
    </vehicle>

    <vehicle id="16" depart="16.00" arrival="95.00">
        <route edges="F3F4 F4F5 F5F6 F6G6 G6H6 H6I6 I6J6 J6J5"/>
    </vehicle>

    <vehicle id="34" depart="34.00" arrival="95.00">
        <route edges="D2D3 D3D4 D4D5 D5D6 D6D7 D7C7 C7D7"/>
    </vehicle>

    <vehicle id="12" depart="12.00" arrival="96.00">
        <route edges="J4J3 J3I3 I3H3 H3G3 G3F3 F3E3 E3D3 D3D4 D4D5"/>
    </vehicle>

    <vehicle id="47" depart="47.00" arrival="96.00">
        <route edges="A7B7 B7C7 C7D7 D7D8 D8D9"/>
    </vehicle>

    <vehicle id="38" depart="38.00" arrival="99.00">
        <route edges="I9H9 H9G9 G9F9 F9E9 E9E8 E8E7 E7E6 E6D6"/>
    </vehicle>

    <vehicle id="79" depart="79.00" arrival="99.00">
        <route edges="C4C3 C3C4"/>
    </vehicle>

    <vehicle id="14" depart="14.00" arrival="101.00">
        <route edges="I3H3 H3G3 G3F3 F3F4 F4F5 F5F6 F6F7 F7F8 F8F9 F9G9"/>
    </vehicle>

    <vehicle id="42" depart="42.00" arrival="101.00">
        <route edges="E0E1 E1E2 E2E3 E3D3 D3C3 C3C2"/>
    </vehicle>

    <vehicle id="51" depart="53.00" arrival="101.00">
        <route edges="G7F7 F7F6 F6F5 F5F4 F4F3 F3F4"/>
    </vehicle>

    <vehicle id="30" depart="30.00" arrival="102.00">
        <route edges="J8J7 J7J6 J6J5 J5J4 J4I4 I4H4 H4G4 G4G3 G3G2"/>
    </vehicle>

    <vehicle id="57" depart="57.00" arrival="106.00">
        <route edges="I8J8 J8J7 J7J6 J6J5 J5I5 I5H5"/>
    </vehicle>

    <vehicle id="15" depart="15.00" arrival="107.00">
        <route edges="H8I8 I8I7 I7I6 I6I5 I5I4 I4I3 I3I2 I2I1 I1H1 H1I1"/>
    </vehicle>

    <vehicle id="37" depart="37.00" arrival="108.00">
        <route edges="G4G5 G5G4 G4G3 G3G2 G2G1 G1G0 G0F0 F0E0 E0D0"/>
    </vehicle>

    <vehicle id="66" depart="67.00" arrival="109.00">
        <route edges="I5J5 J5J4 J4J3 J3I3"/>
    </vehicle>

    <vehicle id="25" depart="26.00" arrival="114.00">
        <route edges="D7D8 D8D7 D7D6 D6D5 D5D4 D4D3 D3D2 D2C2 C2C3"/>
    </vehicle>

    <vehicle id="44" depart="44.00" arrival="115.00">
        <route edges="B1B0 B0A0 A0A1 A1A2 A2A3 A3A4 A4A5 A5B5"/>
    </vehicle>

    <vehicle id="84" depart="84.00" arrival="118.00">
        <route edges="C3B3 B3B4 B4B5 B5A5"/>
    </vehicle>

    <vehicle id="40" depart="40.00" arrival="119.00">
        <route edges="F5G5 G5F5 F5E5 E5D5 D5C5 C5C6 C6C7 C7C6"/>
    </vehicle>

    <vehicle id="74" depart="74.00" arrival="119.00">
        <route edges="C1D1 D1D2 D2D1"/>
    </vehicle>

    <vehicle id="61" depart="61.00" arrival="120.00">
        <route edges="H6H5 H5H4 H4H3 H3H2 H2G2 G2F2 F2G2"/>
    </vehicle>

    <vehicle id="20" depart="21.00" arrival="122.00">
        <route edges="G9F9 F9E9 E9D9 D9C9 C9B9 B9A9 A9A8 A8A7 A7A6 A6A5 A5B5"/>
    </vehicle>

    <vehicle id="60" depart="60.00" arrival="123.00">
        <route edges="H4I4 I4H4 H4G4 G4G3 G3F3 F3G3"/>
    </vehicle>

    <vehicle id="62" depart="62.00" arrival="123.00">
        <route edges="A0A1 A1A2 A2A3 A3B3 B3C3 C3D3 D3D2"/>
    </vehicle>

    <vehicle id="73" depart="73.00" arrival="125.00">
        <route edges="F3G3 G3H3 H3H2 H2H1 H1I1"/>
    </vehicle>

    <vehicle id="23" depart="28.00" arrival="127.00">
        <route edges="B2B1 B1B2 B2B3 B3B4 B4B5 B5B6 B6B7 B7B8 B8C8 C8D8"/>
    </vehicle>

    <vehicle id="77" depart="77.00" arrival="127.00">
        <route edges="B4A4 A4B4 B4B3 B3C3 C3D3"/>
    </vehicle>

    <vehicle id="52" depart="52.00" arrival="128.00">
        <route edges="C7D7 D7E7 E7F7 F7G7 G7G6 G6G5 G5G4 G4G3 G3G2"/>
    </vehicle>

    <vehicle id="72" depart="72.00" arrival="128.00">
        <route edges="E2F2 F2E2 E2D2 D2C2 C2D2"/>
    </vehicle>

    <vehicle id="64" depart="64.00" arrival="132.00">
        <route edges="I5J5 J5J4 J4J3 J3J2 J2J1 J1I1 I1I2"/>
    </vehicle>

    <vehicle id="70" depart="70.00" arrival="132.00">
        <route edges="E7E8 E8F8 F8F7 F7F6 F6F5 F5F4 F4F5"/>
    </vehicle>

    <vehicle id="3" depart="3.00" arrival="133.00">
        <route edges="I7H7 H7H6 H6H5 H5H4 H4H3 H3H2 H2H1 H1G1 G1F1 F1E1 E1D1 D1C1 C1B1 B1A1"/>
    </vehicle>

    <vehicle id="24" depart="24.00" arrival="137.00">
        <route edges="G2H2 H2G2 G2F2 F2E2 E2E3 E3E4 E4E5 E5E6 E6E7 E7D7 D7C7"/>
    </vehicle>

    <vehicle id="50" depart="50.00" arrival="137.00">
        <route edges="A1B1 B1C1 C1D1 D1E1 E1F1 F1G1 G1H1 H1G1"/>
    </vehicle>

    <vehicle id="54" depart="54.00" arrival="138.00">
        <route edges="E5E6 E6F6 F6G6 G6H6 H6I6 I6J6 J6J5 J5J4 J4I4"/>
    </vehicle>

    <vehicle id="86" depart="86.00" arrival="138.00">
        <route edges="E7E6 E6F6 F6G6 G6H6 H6I6"/>
    </vehicle>

    <vehicle id="35" depart="35.00" arrival="141.00">
        <route edges="C2C3 C3D3 D3E3 E3F3 F3G3 G3H3 H3I3 I3J3 J3J2 J2J3"/>
    </vehicle>

    <vehicle id="36" depart="36.00" arrival="141.00">
        <route edges="I5I6 I6I5 I5I4 I4I3 I3I2 I2H2 H2G2 G2F2 F2E2 E2D2 D2D3"/>
    </vehicle>

    <vehicle id="78" depart="78.00" arrival="141.00">
        <route edges="D4D5 D5D6 D6D7 D7D8 D8E8 E8F8 F8E8"/>
    </vehicle>

    <vehicle id="88" depart="88.00" arrival="141.00">
        <route edges="B1C1 C1D1 D1E1 E1E2 E2E3 E3E4"/>
    </vehicle>

    <vehicle id="53" depart="53.00" arrival="142.00">
        <route edges="B3B2 B2B3 B3C3 C3D3 D3E3 E3F3"/>
    </vehicle>

    <vehicle id="58" depart="58.00" arrival="142.00">
        <route edges="D1C1 C1C2 C2C3 C3D3 D3E3 E3F3 F3G3 G3G2"/>
    </vehicle>

    <vehicle id="28" depart="28.00" arrival="143.00">
        <route edges="B8B9 B9C9 C9D9 D9E9 E9F9 F9G9 G9H9 H9H8 H8H7 H7H6 H6H5 H5H4 H4H3 H3H2 H2H1 H1I1"/>
    </vehicle>

    <vehicle id="46" depart="46.00" arrival="143.00">
        <route edges="H7H8 H8H7 H7H6 H6H5 H5H4 H4H3 H3H2 H2G2 G2F2 F2E2 E2E3"/>
    </vehicle>

    <vehicle id="76" depart="76.00" arrival="143.00">
        <route edges="E4D4 D4E4 E4E3 E3E2 E2E1 E1F1 F1G1"/>
    </vehicle>

    <vehicle id="26" depart="26.00" arrival="148.00">
        <route edges="C7D7 D7E7 E7F7 F7G7 G7H7 H7I7 I7J7 J7J6 J6J5 J5J4 J4J3 J3J2 J2I2"/>
    </vehicle>

    <vehicle id="43" depart="43.00" arrival="149.00">
        <route edges="J9J8 J8J7 J7J6 J6J5 J5J4 J4J3 J3J2 J2J1 J1I1 I1H1 H1G1 G1F1 F1E1"/>
    </vehicle>

    <vehicle id="55" depart="55.00" arrival="149.00">
        <route edges="I5I6 I6I7 I7H7 H7G7 G7F7 F7E7 E7D7 D7C7 C7C6"/>
    </vehicle>

    <vehicle id="69" depart="71.00" arrival="151.00">
        <route edges="H5G5 G5F5 F5E5 E5D5 D5C5 C5C4 C4B4 B4C4"/>
    </vehicle>

    <vehicle id="75" depart="75.00" arrival="151.00">
        <route edges="J9I9 I9H9 H9G9 G9G8 G8G7 G7G6 G6G5 G5G4 G4F4"/>
    </vehicle>

    <vehicle id="89" depart="89.00" arrival="152.00">
        <route edges="E2F2 F2E2 E2E3 E3E4 E4E5 E5E6 E6F6"/>
    </vehicle>

    <vehicle id="116" depart="116.00" arrival="152.00">
        <route edges="F8G8 G8G7 G7G6 G6G7"/>
    </vehicle>

    <vehicle id="9" depart="9.00" arrival="156.00">
        <route edges="H9G9 G9F9 F9E9 E9D9 D9C9 C9B9 B9A9 A9A8 A8A7 A7A6 A6A5 A5A4 A4A3 A3A2 A2A1 A1A0"/>
    </vehicle>

    <vehicle id="117" depart="117.00" arrival="156.00">
        <route edges="C4D4 D4C4 C4B4 B4A4"/>
    </vehicle>

    <vehicle id="94" depart="94.00" arrival="160.00">
        <route edges="C0D0 D0D1 D1D2 D2D3 D3D4 D4D5 D5E5 E5D5"/>
    </vehicle>

    <vehicle id="48" depart="48.00" arrival="161.00">
        <route edges="J9I9 I9H9 H9G9 G9G8 G8G7 G7G6 G6G5 G5G4 G4G3 G3G2 G2F2 F2G2"/>
    </vehicle>

    <vehicle id="127" depart="127.00" arrival="163.00">
        <route edges="J9J8 J8J9 J9I9"/>
    </vehicle>

    <vehicle id="83" depart="83.00" arrival="164.00">
        <route edges="C5B5 B5C5 C5D5 D5E5 E5F5 F5G5 G5H5"/>
    </vehicle>

    <vehicle id="106" depart="106.00" arrival="164.00">
        <route edges="E5E6 E6E5 E5E4 E4E3 E3E2 E2F2"/>
    </vehicle>

    <vehicle id="137" depart="137.00" arrival="165.00">
        <route edges="B5B4 B4B3 B3B4"/>
    </vehicle>

    <vehicle id="97" depart="97.00" arrival="166.00">
        <route edges="E4E5 E5F5 F5G5 G5H5 H5I5 I5I4 I4I3"/>
    </vehicle>

    <vehicle id="130" depart="130.00" arrival="168.00">
        <route edges="I6H6 H6H5 H5I5 I5J5"/>
    </vehicle>

    <vehicle id="108" depart="108.00" arrival="169.00">
        <route edges="F5F4 F4F3 F3F2 F2F1 F1F0 F0G0 G0H0 H0I0"/>
    </vehicle>

    <vehicle id="95" depart="95.00" arrival="170.00">
        <route edges="E2E3 E3E4 E4E5 E5E6 E6E7 E7E8 E8D8 D8C8 C8D8"/>
    </vehicle>

    <vehicle id="71" depart="71.00" arrival="171.00">
        <route edges="C7C8 C8D8 D8E8 E8F8 F8G8 G8H8 H8I8 I8I7 I7I6 I6I5 I5I4"/>
    </vehicle>

    <vehicle id="90" depart="90.00" arrival="171.00">
        <route edges="H1I1 I1H1 H1G1 G1G2 G2G3 G3G4 G4G5 G5G6 G6G5"/>
    </vehicle>

    <vehicle id="45" depart="45.00" arrival="172.00">
        <route edges="B3A3 A3B3 B3C3 C3D3 D3E3 E3F3 F3G3 G3G2 G2F2"/>
    </vehicle>

    <vehicle id="92" depart="92.00" arrival="172.00">
        <route edges="E0F0 F0E0 E0D0 D0D1 D1D2 D2D3 D3D4 D4E4"/>
    </vehicle>

    <vehicle id="107" depart="107.00" arrival="174.00">
        <route edges="J4J3 J3J4 J4J5 J5J6 J6J7 J7J8 J8J9 J9I9"/>
    </vehicle>

    <vehicle id="59" depart="59.00" arrival="175.00">
        <route edges="G0G1 G1G2 G2G3 G3G4 G4G5 G5G6 G6G7 G7F7 F7E7 E7D7 D7C7 C7B7 B7A7"/>
    </vehicle>

    <vehicle id="67" depart="67.00" arrival="175.00">
        <route edges="B0C0 C0D0 D0D1 D1D2 D2D3 D3D4 D4D5 D5D6 D6D7 D7D8 D8E8 E8E7"/>
    </vehicle>

    <vehicle id="113" depart="113.00" arrival="175.00">
        <route edges="F0F1 F1F2 F2F3 F3G3 G3H3 H3I3 I3I2"/>
    </vehicle>

    <vehicle id="121" depart="121.00" arrival="176.00">
        <route edges="F2F1 F1G1 G1H1 H1I1 I1J1 J1J2"/>
    </vehicle>

    <vehicle id="115" depart="115.00" arrival="177.00">
        <route edges="B0A0 A0A1 A1B1 B1C1 C1C0 C0B0"/>
    </vehicle>

</routes>
