<?xml version="1.0" encoding="UTF-8"?>

<!-- generated on 2024-02-28 11:58:47 by Eclipse SUMO GUI Version 1.18.0
<configuration xmlns:xsi="http://www.w3.org/2001/XMLSchema-instance" xsi:noNamespaceSchemaLocation="http://sumo.dlr.de/xsd/sumoConfiguration.xsd">

    <input>
        <net-file value="grid_10.net.xml"/>
        <route-files value="trips.trips.xml"/>
    </input>

    <output>
        <vehroute-output value="out.xml"/>
    </output>

    <routing>
        <routing-algorithm value="astar"/>
    </routing>

    <traci_server>
        <remote-port value="49843"/>
    </traci_server>

</configuration>
-->

<routes xmlns:xsi="http://www.w3.org/2001/XMLSchema-instance" xsi:noNamespaceSchemaLocation="http://sumo.dlr.de/xsd/routes_file.xsd">
</routes>
