<configuration xmlns:xsi="http://www.w3.org/2001/XMLSchema-instance" xsi:noNamespaceSchemaLocation="http://sumo.dlr.de/xsd/sumoConfiguration.xsd">

    <input>
        <net-file value="random_20.net.xml" />
        <route-files value="../trip_files_random20net/500tr_rand20.trips.xml" />

    </input>

    <routing>
        <routing-algorithm value="astar" />
    </routing>


   <output>
        <vehroute-output value="../output_files/cr_500tr.out.xml" />
    </output>

</configuration>